   0.10355E+01   0.21503E-04   0.21503E-04
   0.20711E+01   0.12336E-03   0.12336E-03
   0.31066E+01   0.22496E-03   0.22496E-03
   0.41421E+01   0.40485E-03   0.40485E-03
   0.51776E+01   0.65816E-03   0.65816E-03
   0.62132E+01   0.85378E-03   0.85378E-03
   0.72487E+01   0.12449E-02   0.12449E-02
   0.82842E+01   0.14748E-02   0.14748E-02
   0.93197E+01   0.19792E-02   0.19792E-02
   0.10355E+02   0.23853E-02   0.23853E-02
   0.11391E+02   0.28370E-02   0.28370E-02
   0.12426E+02   0.36511E-02   0.36511E-02
   0.13462E+02   0.42695E-02   0.42695E-02
   0.14497E+02   0.50570E-02   0.50570E-02
   0.15533E+02   0.62706E-02   0.62706E-02
   0.16568E+02   0.78780E-02   0.78780E-02
   0.17604E+02   0.98136E-02   0.98136E-02
   0.18639E+02   0.12562E-01   0.12562E-01
   0.19675E+02   0.17457E-01   0.17457E-01
   0.20711E+02   0.49021E-01   0.49021E-01
   0.21746E+02   0.48928E-01   0.48928E-01
   0.22782E+02   0.51233E-01   0.51233E-01
   0.23817E+02   0.50413E-01   0.50413E-01
   0.24853E+02   0.56847E-01   0.56847E-01
   0.25888E+02   0.71063E-01   0.71063E-01
   0.26924E+02   0.88102E-01   0.88102E-01
   0.27959E+02   0.64287E-01   0.64287E-01
   0.28995E+02   0.55917E-01   0.55917E-01
   0.30030E+02   0.48814E-01   0.48814E-01
   0.31066E+02   0.43317E-01   0.43317E-01
   0.32101E+02   0.41696E-01   0.41696E-01
   0.33137E+02   0.40571E-01   0.40571E-01
   0.34172E+02   0.37546E-01   0.37546E-01
   0.35208E+02   0.36660E-01   0.36660E-01
   0.36243E+02   0.36940E-01   0.36940E-01
   0.37279E+02   0.37016E-01   0.37016E-01
   0.38315E+02   0.37801E-01   0.37801E-01
   0.39350E+02   0.34050E-01   0.34050E-01
   0.40386E+02   0.49201E-02   0.49201E-02
   0.41421E+02   0.53080E-02   0.53080E-02
   0.42457E+02   0.57801E-02   0.57801E-02
   0.43492E+02   0.64365E-02   0.64365E-02
   0.44528E+02   0.70807E-02   0.70807E-02
   0.45563E+02   0.76794E-02   0.76794E-02
   0.46599E+02   0.84772E-02   0.84772E-02
   0.47634E+02   0.94238E-02   0.94238E-02
   0.48670E+02   0.10270E-01   0.10270E-01
   0.49705E+02   0.11174E-01   0.11174E-01
   0.50741E+02   0.12360E-01   0.12360E-01
   0.51776E+02   0.13668E-01   0.13668E-01
   0.52812E+02   0.14864E-01   0.14864E-01
   0.53847E+02   0.16245E-01   0.16245E-01
   0.54883E+02   0.17997E-01   0.17997E-01
   0.55918E+02   0.20325E-01   0.20325E-01
   0.56954E+02   0.23098E-01   0.23098E-01
   0.57990E+02   0.26548E-01   0.26548E-01
   0.59025E+02   0.31977E-01   0.31977E-01
   0.60061E+02   0.50616E-01   0.50616E-01
   0.61096E+02   0.31690E-01   0.31690E-01
   0.62132E+02   0.24664E-01   0.24664E-01
   0.63167E+02   0.19855E-01   0.19855E-01
   0.64203E+02   0.15641E-01   0.15641E-01
   0.65238E+02   0.13194E-01   0.13194E-01
   0.66274E+02   0.12524E-01   0.12524E-01
   0.67309E+02   0.14381E-01   0.14381E-01
   0.68345E+02   0.21248E-01   0.21248E-01
   0.69380E+02   0.23635E-01   0.23635E-01
   0.70416E+02   0.27478E-01   0.27478E-01
   0.71451E+02   0.30422E-01   0.30422E-01
   0.72487E+02   0.31958E-01   0.31958E-01
   0.73522E+02   0.33205E-01   0.33205E-01
   0.74558E+02   0.33607E-01   0.33607E-01
   0.75594E+02   0.29900E-01   0.29900E-01
   0.76629E+02   0.26586E-01   0.26586E-01
   0.77665E+02   0.24478E-01   0.24478E-01
   0.78700E+02   0.22637E-01   0.22637E-01
   0.79736E+02   0.21166E-01   0.21166E-01
   0.80771E+02   0.20148E-01   0.20148E-01
   0.81807E+02   0.19495E-01   0.19495E-01
   0.82842E+02   0.19090E-01   0.19090E-01
   0.83878E+02   0.20970E-01   0.20970E-01
   0.84913E+02   0.17043E+00   0.17043E+00
   0.85949E+02   0.18148E+00   0.18148E+00
   0.86984E+02   0.15961E+00   0.15961E+00
   0.88020E+02   0.16632E+00   0.16632E+00
   0.89055E+02   0.19121E+00   0.19121E+00
   0.90091E+02   0.61357E-01   0.61357E-01
   0.91126E+02   0.33383E-01   0.33383E-01
   0.92162E+02   0.21878E-01   0.21878E-01
   0.93197E+02   0.14451E-01   0.14451E-01
   0.94233E+02   0.00000E+00   0.00000E+00
   0.95269E+02   0.00000E+00   0.00000E+00
   0.96304E+02   0.00000E+00   0.00000E+00
   0.97340E+02   0.00000E+00   0.00000E+00
   0.98375E+02   0.00000E+00   0.00000E+00
   0.99411E+02   0.00000E+00   0.00000E+00
   0.10045E+03   0.00000E+00   0.00000E+00
   0.10148E+03   0.00000E+00   0.00000E+00
   0.10252E+03   0.00000E+00   0.00000E+00
   0.10355E+03   0.00000E+00   0.00000E+00
