2102

    1
0.0	0.0	0.0
0.0	0.0	0.0
     1	1	1
 1	1	0	0.0
 1	1	0	0.0
 1	1	0	0.0
 1	2	0	0.0
 1	2	0	0.0
 1	2	0	-33.2744915882
 1	3	0	0.0
 1	3	0	-33.2744915882
 1	3	0	0.0
 2	1	0	0.0
 2	1	0	0.0
 2	1	0	-33.2744915882
 2	2	0	0.0
 2	2	0	0.0
 2	2	0	0.0
 2	3	0	-33.2744915882
 2	3	0	0.0
 2	3	0	0.0
 3	1	0	0.0
 3	1	0	-33.2744915882
 3	1	0	0.0
 3	2	0	-33.2744915882
 3	2	0	0.0
 3	2	0	0.0
 3	3	0	0.0
 3	3	0	0.0
 3	3	0	0.0

    2
0.0	0.0	0.0
0.0	0.0	0.0
     1	1	2
 1	1	0	3.05045794782
 1	1	0	-6.27223595767
 1	1	0	-6.27223595767
 1	2	0	-6.12044231129
 1	2	0	6.12044231129
 1	2	0	8.6809469929
 1	3	0	-6.12044231129
 1	3	0	8.6809469929
 1	3	0	6.12044231129
 2	1	0	-6.12044231129
 2	1	0	6.12044231129
 2	1	0	8.6809469929
 2	2	0	6.27223595767
 2	2	0	-3.05045794782
 2	2	0	-6.27223595767
 2	3	0	8.6809469929
 2	3	0	-6.12044231129
 2	3	0	-6.12044231129
 3	1	0	-6.12044231129
 3	1	0	8.6809469929
 3	1	0	6.12044231129
 3	2	0	8.6809469929
 3	2	0	-6.12044231129
 3	2	0	-6.12044231129
 3	3	0	6.27223595767
 3	3	0	-6.27223595767
 3	3	0	-3.05045794782

    3
0.0	0.0	0.0
-2.6988037757	0.0	2.6988037757
     1	1	1
 1	1	0	0.149464689202
 1	1	0	-0.137864883434
 1	1	0	-0.158197776183
 1	2	0	-0.0770637143326
 1	2	0	-0.0524560699942
 1	2	0	-0.157804761181
 1	3	0	-0.278741416164
 1	3	0	0.0474005029934
 1	3	0	0.278741416164
 2	1	0	-0.0770637143326
 2	1	0	-0.0524560699942
 2	1	0	-0.157804761181
 2	2	0	-0.211692014463
 2	2	0	0.0202011828554
 2	2	0	0.211692014463
 2	3	0	-0.157804761181
 2	3	0	0.0524560699942
 2	3	0	-0.0770637143326
 3	1	0	-0.278741416164
 3	1	0	0.0474005029934
 3	1	0	0.278741416164
 3	2	0	-0.157804761181
 3	2	0	0.0524560699942
 3	2	0	-0.0770637143326
 3	3	0	0.158197776183
 3	3	0	-0.137864883434
 3	3	0	-0.149464689202

    4
0.0	0.0	0.0
-2.6988037757	0.0	2.6988037757
     1	1	2
 1	1	0	0.0343853662396
 1	1	0	-0.00722478198045
 1	1	0	-0.00787387986778
 1	2	0	-0.0426563639074
 1	2	0	-0.021918961547
 1	2	0	-0.0137111199864
 1	3	0	-0.0231736645807
 1	3	0	-0.0666678325785
 1	3	0	0.0231736645807
 2	1	0	-0.0426563639074
 2	1	0	-0.021918961547
 2	1	0	-0.0137111199864
 2	2	0	-0.0217878792188
 2	2	0	-0.200999232378
 2	2	0	0.0217878792188
 2	3	0	-0.0137111199864
 2	3	0	0.021918961547
 2	3	0	-0.0426563639074
 3	1	0	-0.0231736645807
 3	1	0	-0.0666678325785
 3	1	0	0.0231736645807
 3	2	0	-0.0137111199864
 3	2	0	0.021918961547
 3	2	0	-0.0426563639074
 3	3	0	0.00787387986778
 3	3	0	-0.00722478198045
 3	3	0	-0.0343853662396

    5
0.0	0.0	0.0
5.3976075514	0.0	-5.3976075514
     1	1	2
 1	1	0	-0.0343853662396
 1	1	0	-0.00722478198045
 1	1	0	0.00787387986778
 1	2	0	-0.0426563639074
 1	2	0	0.021918961547
 1	2	0	-0.0137111199864
 1	3	0	0.0231736645807
 1	3	0	-0.0666678325785
 1	3	0	-0.0231736645807
 2	1	0	-0.0426563639074
 2	1	0	0.021918961547
 2	1	0	-0.0137111199864
 2	2	0	0.0217878792188
 2	2	0	-0.200999232378
 2	2	0	-0.0217878792188
 2	3	0	-0.0137111199864
 2	3	0	-0.021918961547
 2	3	0	-0.0426563639074
 3	1	0	0.0231736645807
 3	1	0	-0.0666678325785
 3	1	0	-0.0231736645807
 3	2	0	-0.0137111199864
 3	2	0	-0.021918961547
 3	2	0	-0.0426563639074
 3	3	0	-0.00787387986778
 3	3	0	-0.00722478198045
 3	3	0	0.0343853662396

    6
0.0	0.0	0.0
2.6988037757	0.0	-2.6988037757
     1	1	1
 1	1	0	-0.149464689202
 1	1	0	-0.137864883434
 1	1	0	0.158197776183
 1	2	0	-0.0770637143326
 1	2	0	0.0524560699942
 1	2	0	-0.157804761181
 1	3	0	0.278741416164
 1	3	0	0.0474005029934
 1	3	0	-0.278741416164
 2	1	0	-0.0770637143326
 2	1	0	0.0524560699942
 2	1	0	-0.157804761181
 2	2	0	0.211692014463
 2	2	0	0.0202011828554
 2	2	0	-0.211692014463
 2	3	0	-0.157804761181
 2	3	0	-0.0524560699942
 2	3	0	-0.0770637143326
 3	1	0	0.278741416164
 3	1	0	0.0474005029934
 3	1	0	-0.278741416164
 3	2	0	-0.157804761181
 3	2	0	-0.0524560699942
 3	2	0	-0.0770637143326
 3	3	0	-0.158197776183
 3	3	0	-0.137864883434
 3	3	0	0.149464689202

    7
0.0	0.0	0.0
2.6988037757	0.0	-2.6988037757
     1	1	2
 1	1	0	-3.05045794782
 1	1	0	-6.27223595767
 1	1	0	6.27223595767
 1	2	0	-6.12044231129
 1	2	0	-6.12044231129
 1	2	0	8.6809469929
 1	3	0	6.12044231129
 1	3	0	8.6809469929
 1	3	0	-6.12044231129
 2	1	0	-6.12044231129
 2	1	0	-6.12044231129
 2	1	0	8.6809469929
 2	2	0	-6.27223595767
 2	2	0	-3.05045794782
 2	2	0	6.27223595767
 2	3	0	8.6809469929
 2	3	0	6.12044231129
 2	3	0	-6.12044231129
 3	1	0	6.12044231129
 3	1	0	8.6809469929
 3	1	0	-6.12044231129
 3	2	0	8.6809469929
 3	2	0	6.12044231129
 3	2	0	-6.12044231129
 3	3	0	-6.27223595767
 3	3	0	-6.27223595767
 3	3	0	3.05045794782

    8
0.0	0.0	0.0
0.0	2.6988037757	2.6988037757
     1	1	1
 1	1	0	-0.0202011828554
 1	1	0	0.211692014463
 1	1	0	0.211692014463
 1	2	0	0.0524560699942
 1	2	0	0.0770637143326
 1	2	0	-0.157804761181
 1	3	0	0.0524560699942
 1	3	0	-0.157804761181
 1	3	0	0.0770637143326
 2	1	0	0.0524560699942
 2	1	0	0.0770637143326
 2	1	0	-0.157804761181
 2	2	0	0.137864883434
 2	2	0	-0.149464689202
 2	2	0	-0.158197776183
 2	3	0	0.0474005029934
 2	3	0	-0.278741416164
 2	3	0	-0.278741416164
 3	1	0	0.0524560699942
 3	1	0	-0.157804761181
 3	1	0	0.0770637143326
 3	2	0	0.0474005029934
 3	2	0	-0.278741416164
 3	2	0	-0.278741416164
 3	3	0	0.137864883434
 3	3	0	-0.158197776183
 3	3	0	-0.149464689202

    9
0.0	0.0	0.0
0.0	2.6988037757	2.6988037757
     1	1	2
 1	1	0	0.200999232378
 1	1	0	0.0217878792188
 1	1	0	0.0217878792188
 1	2	0	0.021918961547
 1	2	0	0.0426563639074
 1	2	0	-0.0137111199864
 1	3	0	0.021918961547
 1	3	0	-0.0137111199864
 1	3	0	0.0426563639074
 2	1	0	0.021918961547
 2	1	0	0.0426563639074
 2	1	0	-0.0137111199864
 2	2	0	0.00722478198045
 2	2	0	-0.0343853662396
 2	2	0	-0.00787387986778
 2	3	0	-0.0666678325785
 2	3	0	-0.0231736645807
 2	3	0	-0.0231736645807
 3	1	0	0.021918961547
 3	1	0	-0.0137111199864
 3	1	0	0.0426563639074
 3	2	0	-0.0666678325785
 3	2	0	-0.0231736645807
 3	2	0	-0.0231736645807
 3	3	0	0.00722478198045
 3	3	0	-0.00787387986778
 3	3	0	-0.0343853662396

    10
0.0	0.0	0.0
5.3976075514	2.6988037757	-2.6988037757
     1	1	2
 1	1	0	-0.0343853662396
 1	1	0	-0.00787387986778
 1	1	0	0.00722478198045
 1	2	0	-0.0231736645807
 1	2	0	-0.0231736645807
 1	2	0	-0.0666678325785
 1	3	0	0.0426563639074
 1	3	0	-0.0137111199864
 1	3	0	0.021918961547
 2	1	0	-0.0231736645807
 2	1	0	-0.0231736645807
 2	1	0	-0.0666678325785
 2	2	0	-0.00787387986778
 2	2	0	-0.0343853662396
 2	2	0	0.00722478198045
 2	3	0	-0.0137111199864
 2	3	0	0.0426563639074
 2	3	0	0.021918961547
 3	1	0	0.0426563639074
 3	1	0	-0.0137111199864
 3	1	0	0.021918961547
 3	2	0	-0.0137111199864
 3	2	0	0.0426563639074
 3	2	0	0.021918961547
 3	3	0	0.0217878792188
 3	3	0	0.0217878792188
 3	3	0	0.200999232378

    11
0.0	0.0	0.0
2.6988037757	2.6988037757	0.0
     1	1	1
 1	1	0	-0.149464689202
 1	1	0	-0.158197776183
 1	1	0	0.137864883434
 1	2	0	-0.278741416164
 1	2	0	-0.278741416164
 1	2	0	0.0474005029934
 1	3	0	0.0770637143326
 1	3	0	-0.157804761181
 1	3	0	0.0524560699942
 2	1	0	-0.278741416164
 2	1	0	-0.278741416164
 2	1	0	0.0474005029934
 2	2	0	-0.158197776183
 2	2	0	-0.149464689202
 2	2	0	0.137864883434
 2	3	0	-0.157804761181
 2	3	0	0.0770637143326
 2	3	0	0.0524560699942
 3	1	0	0.0770637143326
 3	1	0	-0.157804761181
 3	1	0	0.0524560699942
 3	2	0	-0.157804761181
 3	2	0	0.0770637143326
 3	2	0	0.0524560699942
 3	3	0	0.211692014463
 3	3	0	0.211692014463
 3	3	0	-0.0202011828554

    12
0.0	0.0	0.0
2.6988037757	2.6988037757	0.0
     1	1	2
 1	1	0	0.0194686131422
 1	1	0	0.0439218600184
 1	1	0	0.0494943947419
 1	2	0	-0.0135279927227
 1	2	0	-0.0114483242848
 1	2	0	0.022306105766
 1	3	0	-0.0566643764547
 1	3	0	-0.0532041676999
 1	3	0	-0.0566643764547
 2	1	0	-0.0135279927227
 2	1	0	-0.0114483242848
 2	1	0	0.022306105766
 2	2	0	-0.0364374785109
 2	2	0	-0.0233572645168
 2	2	0	-0.0364374785109
 2	3	0	0.022306105766
 2	3	0	-0.0114483242848
 2	3	0	-0.0135279927227
 3	1	0	-0.0566643764547
 3	1	0	-0.0532041676999
 3	1	0	-0.0566643764547
 3	2	0	0.022306105766
 3	2	0	-0.0114483242848
 3	2	0	-0.0135279927227
 3	3	0	0.0494943947419
 3	3	0	0.0439218600184
 3	3	0	0.0194686131422

    13
0.0	0.0	0.0
0.0	-5.3976075514	-5.3976075514
     1	1	2
 1	1	0	0.200999232378
 1	1	0	-0.0217878792188
 1	1	0	-0.0217878792188
 1	2	0	-0.021918961547
 1	2	0	0.0426563639074
 1	2	0	-0.0137111199864
 1	3	0	-0.021918961547
 1	3	0	-0.0137111199864
 1	3	0	0.0426563639074
 2	1	0	-0.021918961547
 2	1	0	0.0426563639074
 2	1	0	-0.0137111199864
 2	2	0	0.00722478198045
 2	2	0	0.0343853662396
 2	2	0	0.00787387986778
 2	3	0	-0.0666678325785
 2	3	0	0.0231736645807
 2	3	0	0.0231736645807
 3	1	0	-0.021918961547
 3	1	0	-0.0137111199864
 3	1	0	0.0426563639074
 3	2	0	-0.0666678325785
 3	2	0	0.0231736645807
 3	2	0	0.0231736645807
 3	3	0	0.00722478198045
 3	3	0	0.00787387986778
 3	3	0	0.0343853662396

    14
0.0	0.0	0.0
-2.6988037757	-5.3976075514	-2.6988037757
     1	1	2
 1	1	0	0.0343853662396
 1	1	0	0.00787387986778
 1	1	0	0.00722478198045
 1	2	0	0.0231736645807
 1	2	0	0.0231736645807
 1	2	0	-0.0666678325785
 1	3	0	0.0426563639074
 1	3	0	-0.0137111199864
 1	3	0	-0.021918961547
 2	1	0	0.0231736645807
 2	1	0	0.0231736645807
 2	1	0	-0.0666678325785
 2	2	0	0.00787387986778
 2	2	0	0.0343853662396
 2	2	0	0.00722478198045
 2	3	0	-0.0137111199864
 2	3	0	0.0426563639074
 2	3	0	-0.021918961547
 3	1	0	0.0426563639074
 3	1	0	-0.0137111199864
 3	1	0	-0.021918961547
 3	2	0	-0.0137111199864
 3	2	0	0.0426563639074
 3	2	0	-0.021918961547
 3	3	0	-0.0217878792188
 3	3	0	-0.0217878792188
 3	3	0	0.200999232378

    15
0.0	0.0	0.0
0.0	-2.6988037757	-2.6988037757
     1	1	1
 1	1	0	-0.0202011828554
 1	1	0	-0.211692014463
 1	1	0	-0.211692014463
 1	2	0	-0.0524560699942
 1	2	0	0.0770637143326
 1	2	0	-0.157804761181
 1	3	0	-0.0524560699942
 1	3	0	-0.157804761181
 1	3	0	0.0770637143326
 2	1	0	-0.0524560699942
 2	1	0	0.0770637143326
 2	1	0	-0.157804761181
 2	2	0	0.137864883434
 2	2	0	0.149464689202
 2	2	0	0.158197776183
 2	3	0	0.0474005029934
 2	3	0	0.278741416164
 2	3	0	0.278741416164
 3	1	0	-0.0524560699942
 3	1	0	-0.157804761181
 3	1	0	0.0770637143326
 3	2	0	0.0474005029934
 3	2	0	0.278741416164
 3	2	0	0.278741416164
 3	3	0	0.137864883434
 3	3	0	0.158197776183
 3	3	0	0.149464689202

    16
0.0	0.0	0.0
0.0	-2.6988037757	-2.6988037757
     1	1	2
 1	1	0	3.05045794782
 1	1	0	6.27223595767
 1	1	0	6.27223595767
 1	2	0	6.12044231129
 1	2	0	6.12044231129
 1	2	0	8.6809469929
 1	3	0	6.12044231129
 1	3	0	8.6809469929
 1	3	0	6.12044231129
 2	1	0	6.12044231129
 2	1	0	6.12044231129
 2	1	0	8.6809469929
 2	2	0	6.27223595767
 2	2	0	3.05045794782
 2	2	0	6.27223595767
 2	3	0	8.6809469929
 2	3	0	6.12044231129
 2	3	0	6.12044231129
 3	1	0	6.12044231129
 3	1	0	8.6809469929
 3	1	0	6.12044231129
 3	2	0	8.6809469929
 3	2	0	6.12044231129
 3	2	0	6.12044231129
 3	3	0	6.27223595767
 3	3	0	6.27223595767
 3	3	0	3.05045794782

    17
0.0	0.0	0.0
-2.6988037757	-2.6988037757	0.0
     1	1	1
 1	1	0	0.149464689202
 1	1	0	0.158197776183
 1	1	0	0.137864883434
 1	2	0	0.278741416164
 1	2	0	0.278741416164
 1	2	0	0.0474005029934
 1	3	0	0.0770637143326
 1	3	0	-0.157804761181
 1	3	0	-0.0524560699942
 2	1	0	0.278741416164
 2	1	0	0.278741416164
 2	1	0	0.0474005029934
 2	2	0	0.158197776183
 2	2	0	0.149464689202
 2	2	0	0.137864883434
 2	3	0	-0.157804761181
 2	3	0	0.0770637143326
 2	3	0	-0.0524560699942
 3	1	0	0.0770637143326
 3	1	0	-0.157804761181
 3	1	0	-0.0524560699942
 3	2	0	-0.157804761181
 3	2	0	0.0770637143326
 3	2	0	-0.0524560699942
 3	3	0	-0.211692014463
 3	3	0	-0.211692014463
 3	3	0	-0.0202011828554

    18
0.0	0.0	0.0
-2.6988037757	-2.6988037757	0.0
     1	1	2
 1	1	0	0.0233572645168
 1	1	0	0.0364374785109
 1	1	0	-0.0364374785109
 1	2	0	0.0114483242848
 1	2	0	0.0135279927227
 1	2	0	0.022306105766
 1	3	0	-0.0114483242848
 1	3	0	0.022306105766
 1	3	0	0.0135279927227
 2	1	0	0.0114483242848
 2	1	0	0.0135279927227
 2	1	0	0.022306105766
 2	2	0	-0.0439218600184
 2	2	0	-0.0194686131422
 2	2	0	0.0494943947419
 2	3	0	-0.0532041676999
 2	3	0	-0.0566643764547
 2	3	0	0.0566643764547
 3	1	0	-0.0114483242848
 3	1	0	0.022306105766
 3	1	0	0.0135279927227
 3	2	0	-0.0532041676999
 3	2	0	-0.0566643764547
 3	2	0	0.0566643764547
 3	3	0	-0.0439218600184
 3	3	0	-0.0494943947419
 3	3	0	0.0194686131422

    19
0.0	0.0	0.0
2.6988037757	-2.6988037757	-5.3976075514
     1	1	2
 1	1	0	0.0194686131422
 1	1	0	-0.0494943947419
 1	1	0	-0.0439218600184
 1	2	0	0.0566643764547
 1	2	0	-0.0566643764547
 1	2	0	-0.0532041676999
 1	3	0	0.0135279927227
 1	3	0	0.022306105766
 1	3	0	-0.0114483242848
 2	1	0	0.0566643764547
 2	1	0	-0.0566643764547
 2	1	0	-0.0532041676999
 2	2	0	0.0494943947419
 2	2	0	-0.0194686131422
 2	2	0	-0.0439218600184
 2	3	0	0.022306105766
 2	3	0	0.0135279927227
 2	3	0	0.0114483242848
 3	1	0	0.0135279927227
 3	1	0	0.022306105766
 3	1	0	-0.0114483242848
 3	2	0	0.022306105766
 3	2	0	0.0135279927227
 3	2	0	0.0114483242848
 3	3	0	-0.0364374785109
 3	3	0	0.0364374785109
 3	3	0	0.0233572645168

    20
0.0	0.0	0.0
-2.6988037757	2.6988037757	0.0
     1	1	1
 1	1	0	0.149464689202
 1	1	0	-0.158197776183
 1	1	0	-0.137864883434
 1	2	0	-0.278741416164
 1	2	0	0.278741416164
 1	2	0	0.0474005029934
 1	3	0	-0.0770637143326
 1	3	0	-0.157804761181
 1	3	0	-0.0524560699942
 2	1	0	-0.278741416164
 2	1	0	0.278741416164
 2	1	0	0.0474005029934
 2	2	0	0.158197776183
 2	2	0	-0.149464689202
 2	2	0	-0.137864883434
 2	3	0	-0.157804761181
 2	3	0	-0.0770637143326
 2	3	0	0.0524560699942
 3	1	0	-0.0770637143326
 3	1	0	-0.157804761181
 3	1	0	-0.0524560699942
 3	2	0	-0.157804761181
 3	2	0	-0.0770637143326
 3	2	0	0.0524560699942
 3	3	0	-0.211692014463
 3	3	0	0.211692014463
 3	3	0	0.0202011828554

    21
0.0	0.0	0.0
-2.6988037757	2.6988037757	0.0
     1	1	2
 1	1	0	0.0343853662396
 1	1	0	-0.00787387986778
 1	1	0	-0.00722478198045
 1	2	0	-0.0231736645807
 1	2	0	0.0231736645807
 1	2	0	-0.0666678325785
 1	3	0	-0.0426563639074
 1	3	0	-0.0137111199864
 1	3	0	-0.021918961547
 2	1	0	-0.0231736645807
 2	1	0	0.0231736645807
 2	1	0	-0.0666678325785
 2	2	0	0.00787387986778
 2	2	0	-0.0343853662396
 2	2	0	-0.00722478198045
 2	3	0	-0.0137111199864
 2	3	0	-0.0426563639074
 2	3	0	0.021918961547
 3	1	0	-0.0426563639074
 3	1	0	-0.0137111199864
 3	1	0	-0.021918961547
 3	2	0	-0.0137111199864
 3	2	0	-0.0426563639074
 3	2	0	0.021918961547
 3	3	0	-0.0217878792188
 3	3	0	0.0217878792188
 3	3	0	-0.200999232378

    22
0.0	0.0	0.0
2.6988037757	2.6988037757	-5.3976075514
     1	1	2
 1	1	0	-0.200999232378
 1	1	0	0.0217878792188
 1	1	0	-0.0217878792188
 1	2	0	0.021918961547
 1	2	0	-0.0426563639074
 1	2	0	-0.0137111199864
 1	3	0	-0.021918961547
 1	3	0	-0.0137111199864
 1	3	0	-0.0426563639074
 2	1	0	0.021918961547
 2	1	0	-0.0426563639074
 2	1	0	-0.0137111199864
 2	2	0	-0.00722478198045
 2	2	0	-0.0343853662396
 2	2	0	0.00787387986778
 2	3	0	-0.0666678325785
 2	3	0	0.0231736645807
 2	3	0	-0.0231736645807
 3	1	0	-0.021918961547
 3	1	0	-0.0137111199864
 3	1	0	-0.0426563639074
 3	2	0	-0.0666678325785
 3	2	0	0.0231736645807
 3	2	0	-0.0231736645807
 3	3	0	-0.00722478198045
 3	3	0	-0.00787387986778
 3	3	0	0.0343853662396

    23
0.0	0.0	0.0
0.0	2.6988037757	-2.6988037757
     1	1	1
 1	1	0	0.0202011828554
 1	1	0	0.211692014463
 1	1	0	-0.211692014463
 1	2	0	0.0524560699942
 1	2	0	-0.0770637143326
 1	2	0	-0.157804761181
 1	3	0	-0.0524560699942
 1	3	0	-0.157804761181
 1	3	0	-0.0770637143326
 2	1	0	0.0524560699942
 2	1	0	-0.0770637143326
 2	1	0	-0.157804761181
 2	2	0	-0.137864883434
 2	2	0	-0.149464689202
 2	2	0	0.158197776183
 2	3	0	0.0474005029934
 2	3	0	0.278741416164
 2	3	0	-0.278741416164
 3	1	0	-0.0524560699942
 3	1	0	-0.157804761181
 3	1	0	-0.0770637143326
 3	2	0	0.0474005029934
 3	2	0	0.278741416164
 3	2	0	-0.278741416164
 3	3	0	-0.137864883434
 3	3	0	-0.158197776183
 3	3	0	0.149464689202

    24
0.0	0.0	0.0
0.0	2.6988037757	-2.6988037757
     1	1	2
 1	1	0	-0.0194686131422
 1	1	0	0.0439218600184
 1	1	0	-0.0494943947419
 1	2	0	-0.0135279927227
 1	2	0	0.0114483242848
 1	2	0	0.022306105766
 1	3	0	0.0566643764547
 1	3	0	-0.0532041676999
 1	3	0	0.0566643764547
 2	1	0	-0.0135279927227
 2	1	0	0.0114483242848
 2	1	0	0.022306105766
 2	2	0	0.0364374785109
 2	2	0	-0.0233572645168
 2	2	0	0.0364374785109
 2	3	0	0.022306105766
 2	3	0	0.0114483242848
 2	3	0	-0.0135279927227
 3	1	0	0.0566643764547
 3	1	0	-0.0532041676999
 3	1	0	0.0566643764547
 3	2	0	0.022306105766
 3	2	0	0.0114483242848
 3	2	0	-0.0135279927227
 3	3	0	-0.0494943947419
 3	3	0	0.0439218600184
 3	3	0	-0.0194686131422

    25
0.0	0.0	0.0
0.0	5.3976075514	0.0
     1	1	1
 1	1	0	0.0
 1	1	0	-0.00511679018022
 1	1	0	0.0
 1	2	0	-0.00108463625475
 1	2	0	0.0
 1	2	0	0.0078818996377
 1	3	0	0.0
 1	3	0	0.00137010557854
 1	3	0	0.0
 2	1	0	-0.00108463625475
 2	1	0	0.0
 2	1	0	0.0078818996377
 2	2	0	0.0
 2	2	0	-0.0128546465651
 2	2	0	0.0
 2	3	0	0.0078818996377
 2	3	0	0.0
 2	3	0	-0.00108463625475
 3	1	0	0.0
 3	1	0	0.00137010557854
 3	1	0	0.0
 3	2	0	0.0078818996377
 3	2	0	0.0
 3	2	0	-0.00108463625475
 3	3	0	0.0
 3	3	0	-0.00511679018022
 3	3	0	0.0

    26
0.0	0.0	0.0
-2.6988037757	-2.6988037757	-5.3976075514
     1	1	2
 1	1	0	0.0343853662396
 1	1	0	0.00722478198045
 1	1	0	0.00787387986778
 1	2	0	0.0426563639074
 1	2	0	-0.021918961547
 1	2	0	-0.0137111199864
 1	3	0	0.0231736645807
 1	3	0	-0.0666678325785
 1	3	0	0.0231736645807
 2	1	0	0.0426563639074
 2	1	0	-0.021918961547
 2	1	0	-0.0137111199864
 2	2	0	-0.0217878792188
 2	2	0	0.200999232378
 2	2	0	-0.0217878792188
 2	3	0	-0.0137111199864
 2	3	0	-0.021918961547
 2	3	0	0.0426563639074
 3	1	0	0.0231736645807
 3	1	0	-0.0666678325785
 3	1	0	0.0231736645807
 3	2	0	-0.0137111199864
 3	2	0	-0.021918961547
 3	2	0	0.0426563639074
 3	3	0	0.00787387986778
 3	3	0	0.00722478198045
 3	3	0	0.0343853662396

    27
0.0	0.0	0.0
-2.6988037757	0.0	-2.6988037757
     1	1	1
 1	1	0	0.149464689202
 1	1	0	0.137864883434
 1	1	0	0.158197776183
 1	2	0	0.0770637143326
 1	2	0	-0.0524560699942
 1	2	0	-0.157804761181
 1	3	0	0.278741416164
 1	3	0	0.0474005029934
 1	3	0	0.278741416164
 2	1	0	0.0770637143326
 2	1	0	-0.0524560699942
 2	1	0	-0.157804761181
 2	2	0	-0.211692014463
 2	2	0	-0.0202011828554
 2	2	0	-0.211692014463
 2	3	0	-0.157804761181
 2	3	0	-0.0524560699942
 2	3	0	0.0770637143326
 3	1	0	0.278741416164
 3	1	0	0.0474005029934
 3	1	0	0.278741416164
 3	2	0	-0.157804761181
 3	2	0	-0.0524560699942
 3	2	0	0.0770637143326
 3	3	0	0.158197776183
 3	3	0	0.137864883434
 3	3	0	0.149464689202

    28
0.0	0.0	0.0
-2.6988037757	0.0	-2.6988037757
     1	1	2
 1	1	0	0.0233572645168
 1	1	0	-0.0364374785109
 1	1	0	0.0364374785109
 1	2	0	-0.0114483242848
 1	2	0	0.0135279927227
 1	2	0	0.022306105766
 1	3	0	0.0114483242848
 1	3	0	0.022306105766
 1	3	0	0.0135279927227
 2	1	0	-0.0114483242848
 2	1	0	0.0135279927227
 2	1	0	0.022306105766
 2	2	0	-0.0439218600184
 2	2	0	0.0194686131422
 2	2	0	-0.0494943947419
 2	3	0	-0.0532041676999
 2	3	0	0.0566643764547
 2	3	0	-0.0566643764547
 3	1	0	0.0114483242848
 3	1	0	0.022306105766
 3	1	0	0.0135279927227
 3	2	0	-0.0532041676999
 3	2	0	0.0566643764547
 3	2	0	-0.0566643764547
 3	3	0	-0.0439218600184
 3	3	0	0.0494943947419
 3	3	0	-0.0194686131422

    29
0.0	0.0	0.0
-5.3976075514	0.0	0.0
     1	1	1
 1	1	0	0.0128546465651
 1	1	0	0.0
 1	1	0	0.0
 1	2	0	0.0
 1	2	0	0.00108463625475
 1	2	0	0.0078818996377
 1	3	0	0.0
 1	3	0	0.0078818996377
 1	3	0	0.00108463625475
 2	1	0	0.0
 2	1	0	0.00108463625475
 2	1	0	0.0078818996377
 2	2	0	0.00511679018022
 2	2	0	0.0
 2	2	0	0.0
 2	3	0	0.00137010557854
 2	3	0	0.0
 2	3	0	0.0
 3	1	0	0.0
 3	1	0	0.0078818996377
 3	1	0	0.00108463625475
 3	2	0	0.00137010557854
 3	2	0	0.0
 3	2	0	0.0
 3	3	0	0.00511679018022
 3	3	0	0.0
 3	3	0	0.0

    30
0.0	0.0	0.0
0.0	0.0	-5.3976075514
     1	1	1
 1	1	0	0.0
 1	1	0	0.0
 1	1	0	0.00511679018022
 1	2	0	0.0
 1	2	0	0.0
 1	2	0	0.00137010557854
 1	3	0	0.00108463625475
 1	3	0	0.0078818996377
 1	3	0	0.0
 2	1	0	0.0
 2	1	0	0.0
 2	1	0	0.00137010557854
 2	2	0	0.0
 2	2	0	0.0
 2	2	0	0.00511679018022
 2	3	0	0.0078818996377
 2	3	0	0.00108463625475
 2	3	0	0.0
 3	1	0	0.00108463625475
 3	1	0	0.0078818996377
 3	1	0	0.0
 3	2	0	0.0078818996377
 3	2	0	0.00108463625475
 3	2	0	0.0
 3	3	0	0.0
 3	3	0	0.0
 3	3	0	0.0128546465651

    31
0.0	0.0	0.0
0.0	0.0	-5.3976075514
     1	1	2
 1	1	0	-0.0194686131422
 1	1	0	0.0494943947419
 1	1	0	-0.0439218600184
 1	2	0	-0.0566643764547
 1	2	0	0.0566643764547
 1	2	0	-0.0532041676999
 1	3	0	0.0135279927227
 1	3	0	0.022306105766
 1	3	0	0.0114483242848
 2	1	0	-0.0566643764547
 2	1	0	0.0566643764547
 2	1	0	-0.0532041676999
 2	2	0	-0.0494943947419
 2	2	0	0.0194686131422
 2	2	0	-0.0439218600184
 2	3	0	0.022306105766
 2	3	0	0.0135279927227
 2	3	0	-0.0114483242848
 3	1	0	0.0135279927227
 3	1	0	0.022306105766
 3	1	0	0.0114483242848
 3	2	0	0.022306105766
 3	2	0	0.0135279927227
 3	2	0	-0.0114483242848
 3	3	0	0.0364374785109
 3	3	0	-0.0364374785109
 3	3	0	0.0233572645168

    32
0.0	0.0	0.0
5.3976075514	-5.3976075514	0.0
     1	1	2
 1	1	0	-0.0343853662396
 1	1	0	0.00787387986778
 1	1	0	-0.00722478198045
 1	2	0	0.0231736645807
 1	2	0	-0.0231736645807
 1	2	0	-0.0666678325785
 1	3	0	-0.0426563639074
 1	3	0	-0.0137111199864
 1	3	0	0.021918961547
 2	1	0	0.0231736645807
 2	1	0	-0.0231736645807
 2	1	0	-0.0666678325785
 2	2	0	-0.00787387986778
 2	2	0	0.0343853662396
 2	2	0	-0.00722478198045
 2	3	0	-0.0137111199864
 2	3	0	-0.0426563639074
 2	3	0	-0.021918961547
 3	1	0	-0.0426563639074
 3	1	0	-0.0137111199864
 3	1	0	0.021918961547
 3	2	0	-0.0137111199864
 3	2	0	-0.0426563639074
 3	2	0	-0.021918961547
 3	3	0	0.0217878792188
 3	3	0	-0.0217878792188
 3	3	0	-0.200999232378

    33
0.0	0.0	0.0
2.6988037757	-5.3976075514	2.6988037757
     1	1	2
 1	1	0	-0.200999232378
 1	1	0	-0.0217878792188
 1	1	0	0.0217878792188
 1	2	0	-0.021918961547
 1	2	0	-0.0426563639074
 1	2	0	-0.0137111199864
 1	3	0	0.021918961547
 1	3	0	-0.0137111199864
 1	3	0	-0.0426563639074
 2	1	0	-0.021918961547
 2	1	0	-0.0426563639074
 2	1	0	-0.0137111199864
 2	2	0	-0.00722478198045
 2	2	0	0.0343853662396
 2	2	0	-0.00787387986778
 2	3	0	-0.0666678325785
 2	3	0	-0.0231736645807
 2	3	0	0.0231736645807
 3	1	0	0.021918961547
 3	1	0	-0.0137111199864
 3	1	0	-0.0426563639074
 3	2	0	-0.0666678325785
 3	2	0	-0.0231736645807
 3	2	0	0.0231736645807
 3	3	0	-0.00722478198045
 3	3	0	0.00787387986778
 3	3	0	-0.0343853662396

    34
0.0	0.0	0.0
5.3976075514	-2.6988037757	2.6988037757
     1	1	2
 1	1	0	-0.0343853662396
 1	1	0	0.00722478198045
 1	1	0	-0.00787387986778
 1	2	0	0.0426563639074
 1	2	0	0.021918961547
 1	2	0	-0.0137111199864
 1	3	0	-0.0231736645807
 1	3	0	-0.0666678325785
 1	3	0	-0.0231736645807
 2	1	0	0.0426563639074
 2	1	0	0.021918961547
 2	1	0	-0.0137111199864
 2	2	0	0.0217878792188
 2	2	0	0.200999232378
 2	2	0	0.0217878792188
 2	3	0	-0.0137111199864
 2	3	0	0.021918961547
 2	3	0	0.0426563639074
 3	1	0	-0.0231736645807
 3	1	0	-0.0666678325785
 3	1	0	-0.0231736645807
 3	2	0	-0.0137111199864
 3	2	0	0.021918961547
 3	2	0	0.0426563639074
 3	3	0	-0.00787387986778
 3	3	0	0.00722478198045
 3	3	0	-0.0343853662396

    35
0.0	0.0	0.0
2.6988037757	-2.6988037757	0.0
     1	1	1
 1	1	0	-0.149464689202
 1	1	0	0.158197776183
 1	1	0	-0.137864883434
 1	2	0	0.278741416164
 1	2	0	-0.278741416164
 1	2	0	0.0474005029934
 1	3	0	-0.0770637143326
 1	3	0	-0.157804761181
 1	3	0	0.0524560699942
 2	1	0	0.278741416164
 2	1	0	-0.278741416164
 2	1	0	0.0474005029934
 2	2	0	-0.158197776183
 2	2	0	0.149464689202
 2	2	0	-0.137864883434
 2	3	0	-0.157804761181
 2	3	0	-0.0770637143326
 2	3	0	-0.0524560699942
 3	1	0	-0.0770637143326
 3	1	0	-0.157804761181
 3	1	0	0.0524560699942
 3	2	0	-0.157804761181
 3	2	0	-0.0770637143326
 3	2	0	-0.0524560699942
 3	3	0	0.211692014463
 3	3	0	-0.211692014463
 3	3	0	0.0202011828554

    36
0.0	0.0	0.0
2.6988037757	-2.6988037757	0.0
     1	1	2
 1	1	0	-3.05045794782
 1	1	0	6.27223595767
 1	1	0	-6.27223595767
 1	2	0	6.12044231129
 1	2	0	-6.12044231129
 1	2	0	8.6809469929
 1	3	0	-6.12044231129
 1	3	0	8.6809469929
 1	3	0	-6.12044231129
 2	1	0	6.12044231129
 2	1	0	-6.12044231129
 2	1	0	8.6809469929
 2	2	0	-6.27223595767
 2	2	0	3.05045794782
 2	2	0	-6.27223595767
 2	3	0	8.6809469929
 2	3	0	-6.12044231129
 2	3	0	6.12044231129
 3	1	0	-6.12044231129
 3	1	0	8.6809469929
 3	1	0	-6.12044231129
 3	2	0	8.6809469929
 3	2	0	-6.12044231129
 3	2	0	6.12044231129
 3	3	0	-6.27223595767
 3	3	0	6.27223595767
 3	3	0	-3.05045794782

    37
0.0	0.0	0.0
0.0	-2.6988037757	2.6988037757
     1	1	1
 1	1	0	0.0202011828554
 1	1	0	-0.211692014463
 1	1	0	0.211692014463
 1	2	0	-0.0524560699942
 1	2	0	-0.0770637143326
 1	2	0	-0.157804761181
 1	3	0	0.0524560699942
 1	3	0	-0.157804761181
 1	3	0	-0.0770637143326
 2	1	0	-0.0524560699942
 2	1	0	-0.0770637143326
 2	1	0	-0.157804761181
 2	2	0	-0.137864883434
 2	2	0	0.149464689202
 2	2	0	-0.158197776183
 2	3	0	0.0474005029934
 2	3	0	-0.278741416164
 2	3	0	0.278741416164
 3	1	0	0.0524560699942
 3	1	0	-0.157804761181
 3	1	0	-0.0770637143326
 3	2	0	0.0474005029934
 3	2	0	-0.278741416164
 3	2	0	0.278741416164
 3	3	0	-0.137864883434
 3	3	0	0.158197776183
 3	3	0	-0.149464689202

    38
0.0	0.0	0.0
0.0	-2.6988037757	2.6988037757
     1	1	2
 1	1	0	-0.0194686131422
 1	1	0	-0.0494943947419
 1	1	0	0.0439218600184
 1	2	0	0.0566643764547
 1	2	0	0.0566643764547
 1	2	0	-0.0532041676999
 1	3	0	-0.0135279927227
 1	3	0	0.022306105766
 1	3	0	0.0114483242848
 2	1	0	0.0566643764547
 2	1	0	0.0566643764547
 2	1	0	-0.0532041676999
 2	2	0	-0.0494943947419
 2	2	0	-0.0194686131422
 2	2	0	0.0439218600184
 2	3	0	0.022306105766
 2	3	0	-0.0135279927227
 2	3	0	0.0114483242848
 3	1	0	-0.0135279927227
 3	1	0	0.022306105766
 3	1	0	0.0114483242848
 3	2	0	0.022306105766
 3	2	0	-0.0135279927227
 3	2	0	0.0114483242848
 3	3	0	0.0364374785109
 3	3	0	0.0364374785109
 3	3	0	-0.0233572645168

    39
0.0	0.0	0.0
5.3976075514	-2.6988037757	-2.6988037757
     1	1	2
 1	1	0	-0.0233572645168
 1	1	0	0.0364374785109
 1	1	0	0.0364374785109
 1	2	0	0.0114483242848
 1	2	0	-0.0135279927227
 1	2	0	0.022306105766
 1	3	0	0.0114483242848
 1	3	0	0.022306105766
 1	3	0	-0.0135279927227
 2	1	0	0.0114483242848
 2	1	0	-0.0135279927227
 2	1	0	0.022306105766
 2	2	0	0.0439218600184
 2	2	0	-0.0194686131422
 2	2	0	-0.0494943947419
 2	3	0	-0.0532041676999
 2	3	0	0.0566643764547
 2	3	0	0.0566643764547
 3	1	0	0.0114483242848
 3	1	0	0.022306105766
 3	1	0	-0.0135279927227
 3	2	0	-0.0532041676999
 3	2	0	0.0566643764547
 3	2	0	0.0566643764547
 3	3	0	0.0439218600184
 3	3	0	-0.0494943947419
 3	3	0	-0.0194686131422

    40
0.0	0.0	0.0
2.6988037757	0.0	2.6988037757
     1	1	1
 1	1	0	-0.149464689202
 1	1	0	0.137864883434
 1	1	0	-0.158197776183
 1	2	0	0.0770637143326
 1	2	0	0.0524560699942
 1	2	0	-0.157804761181
 1	3	0	-0.278741416164
 1	3	0	0.0474005029934
 1	3	0	-0.278741416164
 2	1	0	0.0770637143326
 2	1	0	0.0524560699942
 2	1	0	-0.157804761181
 2	2	0	0.211692014463
 2	2	0	-0.0202011828554
 2	2	0	0.211692014463
 2	3	0	-0.157804761181
 2	3	0	0.0524560699942
 2	3	0	0.0770637143326
 3	1	0	-0.278741416164
 3	1	0	0.0474005029934
 3	1	0	-0.278741416164
 3	2	0	-0.157804761181
 3	2	0	0.0524560699942
 3	2	0	0.0770637143326
 3	3	0	-0.158197776183
 3	3	0	0.137864883434
 3	3	0	-0.149464689202

    41
0.0	0.0	0.0
2.6988037757	0.0	2.6988037757
     1	1	2
 1	1	0	0.0194686131422
 1	1	0	0.0494943947419
 1	1	0	0.0439218600184
 1	2	0	-0.0566643764547
 1	2	0	-0.0566643764547
 1	2	0	-0.0532041676999
 1	3	0	-0.0135279927227
 1	3	0	0.022306105766
 1	3	0	-0.0114483242848
 2	1	0	-0.0566643764547
 2	1	0	-0.0566643764547
 2	1	0	-0.0532041676999
 2	2	0	0.0494943947419
 2	2	0	0.0194686131422
 2	2	0	0.0439218600184
 2	3	0	0.022306105766
 2	3	0	-0.0135279927227
 2	3	0	-0.0114483242848
 3	1	0	-0.0135279927227
 3	1	0	0.022306105766
 3	1	0	-0.0114483242848
 3	2	0	0.022306105766
 3	2	0	-0.0135279927227
 3	2	0	-0.0114483242848
 3	3	0	-0.0364374785109
 3	3	0	-0.0364374785109
 3	3	0	-0.0233572645168

    42
0.0	0.0	0.0
0.0	0.0	5.3976075514
     1	1	1
 1	1	0	0.0
 1	1	0	0.0
 1	1	0	-0.00511679018022
 1	2	0	0.0
 1	2	0	0.0
 1	2	0	0.00137010557854
 1	3	0	-0.00108463625475
 1	3	0	0.0078818996377
 1	3	0	0.0
 2	1	0	0.0
 2	1	0	0.0
 2	1	0	0.00137010557854
 2	2	0	0.0
 2	2	0	0.0
 2	2	0	-0.00511679018022
 2	3	0	0.0078818996377
 2	3	0	-0.00108463625475
 2	3	0	0.0
 3	1	0	-0.00108463625475
 3	1	0	0.0078818996377
 3	1	0	0.0
 3	2	0	0.0078818996377
 3	2	0	-0.00108463625475
 3	2	0	0.0
 3	3	0	0.0
 3	3	0	0.0
 3	3	0	-0.0128546465651

    43
0.0	0.0	0.0
5.3976075514	0.0	0.0
     1	1	1
 1	1	0	-0.0128546465651
 1	1	0	0.0
 1	1	0	0.0
 1	2	0	0.0
 1	2	0	-0.00108463625475
 1	2	0	0.0078818996377
 1	3	0	0.0
 1	3	0	0.0078818996377
 1	3	0	-0.00108463625475
 2	1	0	0.0
 2	1	0	-0.00108463625475
 2	1	0	0.0078818996377
 2	2	0	-0.00511679018022
 2	2	0	0.0
 2	2	0	0.0
 2	3	0	0.00137010557854
 2	3	0	0.0
 2	3	0	0.0
 3	1	0	0.0
 3	1	0	0.0078818996377
 3	1	0	-0.00108463625475
 3	2	0	0.00137010557854
 3	2	0	0.0
 3	2	0	0.0
 3	3	0	-0.00511679018022
 3	3	0	0.0
 3	3	0	0.0

    44
0.0	0.0	0.0
5.3976075514	0.0	0.0
     1	1	2
 1	1	0	-0.0233572645168
 1	1	0	-0.0364374785109
 1	1	0	-0.0364374785109
 1	2	0	-0.0114483242848
 1	2	0	-0.0135279927227
 1	2	0	0.022306105766
 1	3	0	-0.0114483242848
 1	3	0	0.022306105766
 1	3	0	-0.0135279927227
 2	1	0	-0.0114483242848
 2	1	0	-0.0135279927227
 2	1	0	0.022306105766
 2	2	0	0.0439218600184
 2	2	0	0.0194686131422
 2	2	0	0.0494943947419
 2	3	0	-0.0532041676999
 2	3	0	-0.0566643764547
 2	3	0	-0.0566643764547
 3	1	0	-0.0114483242848
 3	1	0	0.022306105766
 3	1	0	-0.0135279927227
 3	2	0	-0.0532041676999
 3	2	0	-0.0566643764547
 3	2	0	-0.0566643764547
 3	3	0	0.0439218600184
 3	3	0	0.0494943947419
 3	3	0	0.0194686131422

    45
0.0	0.0	0.0
2.6988037757	-5.3976075514	-2.6988037757
     1	1	2
 1	1	0	0.0194686131422
 1	1	0	-0.0439218600184
 1	1	0	-0.0494943947419
 1	2	0	0.0135279927227
 1	2	0	-0.0114483242848
 1	2	0	0.022306105766
 1	3	0	0.0566643764547
 1	3	0	-0.0532041676999
 1	3	0	-0.0566643764547
 2	1	0	0.0135279927227
 2	1	0	-0.0114483242848
 2	1	0	0.022306105766
 2	2	0	-0.0364374785109
 2	2	0	0.0233572645168
 2	2	0	0.0364374785109
 2	3	0	0.022306105766
 2	3	0	0.0114483242848
 2	3	0	0.0135279927227
 3	1	0	0.0566643764547
 3	1	0	-0.0532041676999
 3	1	0	-0.0566643764547
 3	2	0	0.022306105766
 3	2	0	0.0114483242848
 3	2	0	0.0135279927227
 3	3	0	0.0494943947419
 3	3	0	-0.0439218600184
 3	3	0	-0.0194686131422

    46
0.0	0.0	0.0
0.0	-5.3976075514	0.0
     1	1	1
 1	1	0	0.0
 1	1	0	0.00511679018022
 1	1	0	0.0
 1	2	0	0.00108463625475
 1	2	0	0.0
 1	2	0	0.0078818996377
 1	3	0	0.0
 1	3	0	0.00137010557854
 1	3	0	0.0
 2	1	0	0.00108463625475
 2	1	0	0.0